4
Lattice="2.4677200133731945 -0.0 0.0 1.2338600066865972 2.137107224581521 0.0 0.0 0.0 19.99999960322502" Properties=species:S:1:pos:R:3:forces:R:3 energy=-1003.9539340657021 stress="0.001988729394522012 -0.0 -0.0 -0.0 0.001988729394522012 -0.0 -0.0 -0.0 -0.0016132029299054365" free_energy=-1003.9539340657021 pbc="T T T"
C        0.00000000       0.00000000       1.00000010       0.00000000       0.00000000      -0.02588484
C        0.00000000       0.00000000       4.53399997       0.00000000      -0.00000000       0.02588484
C        1.23386001       0.71236932       1.00000010       0.00000000      -0.00000000      -0.02588484
C        1.23386001       0.71236932       4.53399997       0.00000000      -0.00000000       0.02588484
4
Lattice="2.4677200133731945 -0.0 0.0 1.2338600066865972 2.137107224581521 0.0 0.0 0.0 19.99999960322502" Properties=species:S:1:pos:R:3:forces:R:3 energy=-1003.9543604680874 stress="0.0019446578289924387 4.6826038375172033e-05 -0.0001065062833631364 4.6826038375172033e-05 0.0019988291282892062 -0.00018454968065508977 -0.0001065062833631364 -0.00018454968065508977 -0.0015406684783046797" free_energy=-1003.9543604680874 pbc="T T T"
C        0.00000000       0.00000000       1.00000010       0.00129301      -0.00454597      -0.02473864
C        0.06494003       0.11247942       4.53399997       0.00457271       0.00115931       0.02473864
C        1.23386001       0.71236932       1.00000010      -0.00458325      -0.00115314      -0.02473864
C        1.29880003       0.82484874       4.53399997      -0.00128221       0.00453980       0.02473864
4
Lattice="2.4677200133731945 -0.0 0.0 1.2338600066865972 2.137107224581521 0.0 0.0 0.0 19.99999960322502" Properties=species:S:1:pos:R:3:forces:R:3 energy=-1003.9555185845846 stress="0.0018914046873108705 8.35523429831501e-05 -0.00018914046873108706 8.35523429831501e-05 0.0019868930792916136 -0.0003268641110110048 -0.00018914046873108706 -0.0003268641110110048 -0.0013891724717967704" free_energy=-1003.9555185845846 pbc="T T T"
C        0.00000000       0.00000000       1.00000010       0.00282641      -0.00836046      -0.02247967
C        0.12988005       0.22495884       4.53399997       0.00861242       0.00175606       0.02247967
C        1.23386001       0.71236932       1.00000010      -0.00865356      -0.00173241      -0.02247967
C        1.36374006       0.93732816       4.53399997      -0.00278528       0.00833654       0.02247967
4
Lattice="2.4677200133731945 -0.0 0.0 1.2338600066865972 2.137107224581521 0.0 0.0 0.0 19.99999960322502" Properties=species:S:1:pos:R:3:forces:R:3 energy=-1003.9572235138409 stress="0.001847333121781297 8.906128867434682e-05 -0.0002469843984886525 8.906128867434682e-05 0.0019501667746836353 -0.00042877960629814397 -0.0002469843984886525 -0.00042877960629814397 -0.001185341481222492" free_energy=-1003.9572235138409 pbc="T T T"
C        0.00000000       0.00000000       1.00000010       0.00330927      -0.01063100      -0.01940797
C        0.19482008       0.33743826       4.53399997       0.01079426       0.00248831       0.01940797
C        1.23386001       0.71236932       1.00000010      -0.01086137      -0.00244949      -0.01940797
C        1.42868009       1.04980758       4.53399997      -0.00324216       0.01059217       0.01940797
4
Lattice="2.4677200133731945 -0.0 0.0 1.2338600066865972 2.137107224581521 0.0 0.0 0.0 19.99999960322502" Properties=species:S:1:pos:R:3:forces:R:3 energy=-1003.9592771569811 stress="0.0018050978714821222 7.896155490715285e-05 -0.0002791199150206333 7.896155490715285e-05 0.001896913633002067 -0.00048295090559491156 -0.0002791199150206333 -0.00048295090559491156 -0.0009466205012706346" free_energy=-1003.9592771569811 pbc="T T T"
C        0.00000000       0.00000000       1.00000010       0.00356663      -0.01177437      -0.01581486
C        0.25976011       0.44991743       4.53399997       0.01188570       0.00285315       0.01581486
C        1.23386001       0.71236932       1.00000010      -0.01198031      -0.00279839      -0.01581486
C        1.49362011       1.16228700       4.53399997      -0.00347202       0.01171986       0.01581486
4
Lattice="2.4677200133731945 -0.0 0.0 1.2338600066865972 2.137107224581521 0.0 0.0 0.0 19.99999960322502" Properties=species:S:1:pos:R:3:forces:R:3 energy=-1003.9614702584638 stress="0.001766535251643745 6.243471783356271e-05 -0.00028095623025103223 6.243471783356271e-05 0.0018381515456293025 -0.0004866235360557094 -0.00028095623025103223 -0.0004866235360557094 -0.0006941271570907855" free_energy=-1003.9614702584638 pbc="T T T"
C        0.00000000       0.00000000       1.00000010       0.00393147      -0.01190009      -0.01209987
C        0.32469988       0.56239685       4.53399997       0.01216775       0.00260504       0.01209987
C        1.23386001       0.71236932       1.00000010      -0.01227162      -0.00254539      -0.01209987
C        1.55855989       1.27476641       4.53399997      -0.00382786       0.01184019       0.01209987
4
Lattice="2.4677200133731945 -0.0 0.0 1.2338600066865972 2.137107224581521 0.0 0.0 0.0 19.99999960322502" Properties=species:S:1:pos:R:3:forces:R:3 energy=-1003.96356294994 stress="0.0017307271046509665 4.4071565529573677e-05 -0.0002543296594102481 4.4071565529573677e-05 0.0017812257734869364 -0.0004407156552957368 -0.0002543296594102481 -0.0004407156552957368 -0.00045356986190852916" free_energy=-1003.96356294994 pbc="T T T"
C        0.00000000       0.00000000       1.00000010       0.00451589      -0.01121567      -0.00847436
C        0.38963991       0.67487626       4.53399997       0.01188055       0.00174912       0.00847436
C        1.23386001       0.71236932       1.00000010      -0.01197080      -0.00169693      -0.00847436
C        1.62349992       1.38724559       4.53399997      -0.00442538       0.01116347       0.00847436
4
Lattice="2.4677200133731945 -0.0 0.0 1.2338600066865972 2.137107224581521 0.0 0.0 0.0 19.99999960322502" Properties=species:S:1:pos:R:3:forces:R:3 energy=-1003.9653519623722 stress="0.0017013460609645841 2.754472845598355e-05 -0.0002019946753438794 2.754472845598355e-05 0.0017325634198813655 -0.0003498180513909911 -0.0002019946753438794 -0.0003498180513909911 -0.0002469843984886525" free_energy=-1003.9653519623722 pbc="T T T"
C        0.00000000       0.00000000       1.00000010       0.00535432      -0.00985170      -0.00542194
C        0.45457994       0.78735568       4.53399997       0.01114933       0.00032344       0.00542194
C        1.23386001       0.71236932       1.00000010      -0.01120924      -0.00028873      -0.00542194
C        1.68843994       1.49972500       4.53399997      -0.00529467       0.00981724       0.00542194
4
Lattice="2.4677200133731945 -0.0 0.0 1.2338600066865972 2.137107224581521 0.0 0.0 0.0 19.99999960322502" Properties=species:S:1:pos:R:3:forces:R:3 energy=-1003.9666553876596 stress="0.001679310278199797 1.5608679458390678e-05 -0.00012946022374312269 1.5608679458390678e-05 0.0016976734305037863 -0.00022403045810866622 -0.00012946022374312269 -0.00022403045810866622 -9.732470721114188e-05" free_energy=-1003.9666553876596 pbc="T T T"
C        0.00000000       0.00000000       1.00000010       0.00642724      -0.00800230      -0.00317634
C        0.51951996       0.89983510       4.53399997       0.01011549      -0.00154858       0.00317634
C        1.23386001       0.71236932       1.00000010      -0.01014377       0.00156503      -0.00317634
C        1.75337997       1.61220442       4.53399997      -0.00639896       0.00798610       0.00317634
4
Lattice="2.4677200133731945 -0.0 0.0 1.2338600066865972 2.137107224581521 0.0 0.0 0.0 19.99999960322502" Properties=species:S:1:pos:R:3:forces:R:3 energy=-1003.9673359443698 stress="0.0016692105444326031 9.181576151994517e-06 -4.498972314477313e-05 9.181576151994517e-06 0.001679310278199797 -7.712523967675394e-05 -4.498972314477313e-05 -7.712523967675394e-05 -2.0199467534387938e-05" free_energy=-1003.9673359443698 pbc="T T T"
C        0.00000000       0.00000000       1.00000010       0.00762178      -0.00586469      -0.00198772
C        0.58445999       1.01231452       4.53399997       0.00888625      -0.00366639       0.00198772
C        1.23386001       0.71236932       1.00000010      -0.00888985       0.00366845      -0.00198772
C        1.81832000       1.72468384       4.53399997      -0.00761818       0.00586263       0.00198772
4
Lattice="2.4677200133731945 -0.0 0.0 1.2338600066865972 2.137107224581521 0.0 0.0 0.0 19.99999960322502" Properties=species:S:1:pos:R:3:forces:R:3 energy=-1003.9673359443698 stress="0.0016692105444326031 9.181576151994517e-06 4.498972314477313e-05 9.181576151994517e-06 0.001679310278199797 7.712523967675394e-05 4.498972314477313e-05 7.712523967675394e-05 -1.9281309919188485e-05" free_energy=-1003.9673359443698 pbc="T T T"
C        0.00000000       0.00000000       1.00000010       0.00889190      -0.00366974      -0.00199338
C        0.64940002       1.12479369       4.53399997       0.00762384      -0.00586571       0.00199338
C        1.23386001       0.71236932       1.00000010      -0.00762384       0.00586571      -0.00199338
C        1.88326002       1.83716326       4.53399997      -0.00889190       0.00366974       0.00199338
4
Lattice="2.4677200133731945 -0.0 0.0 1.2338600066865972 2.137107224581521 0.0 0.0 0.0 19.99999960322502" Properties=species:S:1:pos:R:3:forces:R:3 energy=-1003.9666553876596 stress="0.001679310278199797 1.5608679458390678e-05 0.00012946022374312269 1.5608679458390678e-05 0.0016976734305037863 0.00022403045810866622 0.00012946022374312269 0.00022403045810866622 -9.824286482634133e-05" free_energy=-1003.9666553876596 pbc="T T T"
C        0.00000000       0.00000000       1.00000010       0.01014120      -0.00156297      -0.00318071
C        0.71434004       1.23727311       4.53399997       0.00639973      -0.00798687       0.00318071
C        1.23386001       0.71236932       1.00000010      -0.00642416       0.00800102      -0.00318071
C        1.94820005       1.94964268       4.53399997      -0.01011652       0.00154883       0.00318071
4
Lattice="2.4677200133731945 -0.0 0.0 1.2338600066865972 2.137107224581521 0.0 0.0 0.0 19.99999960322502" Properties=species:S:1:pos:R:3:forces:R:3 energy=-1003.9653519623722 stress="0.0017004279033493845 2.754472845598355e-05 0.0002019946753438794 2.754472845598355e-05 0.0017325634198813655 0.0003498180513909911 0.0002019946753438794 0.0003498180513909911 -0.00024790255610385197" free_energy=-1003.9653519623722 pbc="T T T"
C        0.00000000       0.00000000       1.00000010       0.01120744       0.00028951      -0.00540086
C        0.77928007       1.34975253       4.53399997       0.00529647      -0.00981827       0.00540086
C        1.23386001       0.71236932       1.00000010      -0.00535278       0.00985067      -0.00540086
C        2.01314008       2.06212185       4.53399997      -0.01115113      -0.00032216       0.00540086
4
Lattice="2.4677200133731945 -0.0 0.0 1.2338600066865972 2.137107224581521 0.0 0.0 0.0 19.99999960322502" Properties=species:S:1:pos:R:3:forces:R:3 energy=-1003.9635628138831 stress="0.0017298089470357669 4.4071565529573677e-05 0.0002543296594102481 4.4071565529573677e-05 0.0017812257734869364 0.00043979749768053737 0.0002543296594102481 0.00043979749768053737 -0.00045356986190852916" free_energy=-1003.9635628138831 pbc="T T T"
C        0.00000000       0.00000000       1.00000010       0.01197414       0.00169384      -0.00844582
C        0.84422010       1.46223195       4.53399997       0.00442821      -0.01116373       0.00844582
C        1.23386001       0.71236932       1.00000010      -0.00452026       0.01121695      -0.00844582
C        2.07808010       2.17460127       4.53399997      -0.01188235      -0.00174706       0.00844582
4
Lattice="2.4677200133731945 -0.0 0.0 1.2338600066865972 2.137107224581521 0.0 0.0 0.0 19.99999960322502" Properties=species:S:1:pos:R:3:forces:R:3 energy=-1003.9614702584638 stress="0.0017656170940285457 6.243471783356271e-05 0.00028095623025103223 6.243471783356271e-05 0.0018381515456293025 0.0004866235360557094 0.00028095623025103223 0.0004866235360557094 -0.0006950453147059849" free_energy=-1003.9614702584638 pbc="T T T"
C        0.00000000       0.00000000       1.00000010       0.01227445       0.00254308      -0.01207956
C        0.90916012       1.57471137       4.53399997       0.00382400      -0.01183762       0.01207956
C        1.23386001       0.71236932       1.00000010      -0.00393482       0.01190164      -0.01207956
C        2.14301988       2.28708069       4.53399997      -0.01216363      -0.00260710       0.01207956
4
Lattice="2.4677200133731945 -0.0 0.0 1.2338600066865972 2.137107224581521 0.0 0.0 0.0 19.99999960322502" Properties=species:S:1:pos:R:3:forces:R:3 energy=-1003.9592771569811 stress="0.0018050978714821222 7.896155490715285e-05 0.0002791199150206333 7.896155490715285e-05 0.001896913633002067 0.00048295090559491156 0.0002791199150206333 0.00048295090559491156 -0.0009475386588858341" free_energy=-1003.9592771569811 pbc="T T T"
C        0.00000000       0.00000000       1.00000010       0.01198520       0.00279582      -0.01583774
C        0.97409990       1.68719078       4.53399997       0.00346842      -0.01171806       0.01583774
C        1.23386001       0.71236932       1.00000010      -0.00357152       0.01177745      -0.01583774
C        2.20795991       2.39956011       4.53399997      -0.01188235      -0.00285521       0.01583774
4
Lattice="2.4677200133731945 -0.0 0.0 1.2338600066865972 2.137107224581521 0.0 0.0 0.0 19.99999960322502" Properties=species:S:1:pos:R:3:forces:R:3 energy=-1003.9572235138409 stress="0.001847333121781297 8.906128867434682e-05 0.0002469843984886525 8.906128867434682e-05 0.0019492486170684358 0.00042877960629814397 0.0002469843984886525 0.00042877960629814397 -0.0011862596388376916" free_energy=-1003.9572235138409 pbc="T T T"
C        0.00000000       0.00000000       1.00000010       0.01086265       0.00244769      -0.01940129
C        1.03903993       1.79967020       4.53399997       0.00323933      -0.01058935       0.01940129
C        1.23386001       0.71236932       1.00000010      -0.00331158       0.01063100      -0.01940129
C        2.27289993       2.51203952       4.53399997      -0.01079041      -0.00248934       0.01940129
4
Lattice="2.4677200133731945 -0.0 0.0 1.2338600066865972 2.137107224581521 0.0 0.0 0.0 19.99999960322502" Properties=species:S:1:pos:R:3:forces:R:3 energy=-1003.9555185845846 stress="0.0018914046873108705 8.35523429831501e-05 0.00018914046873108706 8.35523429831501e-05 0.0019868930792916136 0.0003268641110110048 0.00018914046873108706 0.0003268641110110048 -0.001388254314181571" free_energy=-1003.9555185845846 pbc="T T T"
C        0.00000000       0.00000000       1.00000010       0.00865562       0.00173087      -0.02246527
C        1.10397995       1.91214937       4.53399997       0.00278553      -0.00833654       0.02246527
C        1.23386001       0.71236932       1.00000010      -0.00282873       0.00836148      -0.02246527
C        2.33783996       2.62451894       4.53399997      -0.00861242      -0.00175606       0.02246527
4
Lattice="2.4677200133731945 -0.0 0.0 1.2338600066865972 2.137107224581521 0.0 0.0 0.0 19.99999960322502" Properties=species:S:1:pos:R:3:forces:R:3 energy=-1003.9543604680874 stress="0.0019446578289924387 4.6826038375172033e-05 0.0001065062833631364 4.6826038375172033e-05 0.0019988291282892062 0.00018454968065508977 0.0001065062833631364 0.00018454968065508977 -0.0015406684783046797" free_energy=-1003.9543604680874 pbc="T T T"
C        0.00000000       0.00000000       1.00000010       0.00458531       0.00115160      -0.02473453
C        1.16891998       2.02462879       4.53399997       0.00128709      -0.00454211       0.02473453
C        1.23386001       0.71236932       1.00000010      -0.00129532       0.00454674      -0.02473453
C        2.40277999       2.73699836       4.53399997      -0.00457708      -0.00115623       0.02473453
4
Lattice="2.4677200133731945 -0.0 0.0 1.2338600066865972 2.137107224581521 0.0 0.0 0.0 19.99999960322502" Properties=species:S:1:pos:R:3:forces:R:3 energy=-1003.9539340657021 stress="0.001988729394522012 -0.0 0.0 -0.0 0.001988729394522012 -0.0 0.0 -0.0 -0.0016132029299054365" free_energy=-1003.9539340657021 pbc="T T T"
C        0.00000000       0.00000000       1.00000010      -0.00000000       0.00000000      -0.02588484
C        1.23386001       2.13710821       4.53399997       0.00000000       0.00000000       0.02588484
C        1.23386001       0.71236932       1.00000010       0.00000000      -0.00000000      -0.02588484
C        2.46772001       2.84947753       4.53399997       0.00000000       0.00000000       0.02588484
4
Lattice="2.4677200133731945 -0.0 0.0 1.2338600066865972 2.137107224581521 0.0 0.0 0.0 19.99999960322502" Properties=species:S:1:pos:R:3:forces:R:3 energy=-1003.9543603320307 stress="0.0020254556991299902 -0.0 -0.0002130125667262728 -0.0 0.001917113100536455 0.0 -0.0002130125667262728 0.0 -0.0015415866359198794" free_energy=-1003.9543603320307 pbc="T T T"
C        0.00000000       0.00000000       1.00000010      -0.00329127       0.00339694      -0.02474790
C        0.12988005      -0.00000000       4.53399997       0.00329127       0.00338486       0.02474790
C        1.23386001       0.71236932       1.00000010      -0.00329127      -0.00339694      -0.02474790
C        1.36374006       0.71236932       4.53399997       0.00329127      -0.00338486       0.02474790
4
Lattice="2.4677200133731945 -0.0 0.0 1.2338600066865972 2.137107224581521 0.0 0.0 0.0 19.99999960322502" Properties=species:S:1:pos:R:3:forces:R:3 energy=-1003.9551471491949 stress="0.001981384133600417 5.7843929757565454e-05 -0.00029381043686382456 5.7843929757565454e-05 0.0019143586276908567 -0.00016985915881189857 -0.00029381043686382456 -0.00016985915881189857 -0.0014314077220959453" free_energy=-1003.9551471491949 pbc="T T T"
C        0.00000000       0.00000000       1.00000010      -0.00051011      -0.00029439      -0.02322169
C        0.19482008       0.11247942       4.53399997       0.00851267       0.00491466       0.02301986
C        1.23386001       0.71236932       1.00000010      -0.00855046      -0.00493652      -0.02300983
C        1.42868009       0.82484874       4.53399997       0.00054790       0.00031625       0.02321141
4
Lattice="2.4677200133731945 -0.0 0.0 1.2338600066865972 2.137107224581521 0.0 0.0 0.0 19.99999960322502" Properties=species:S:1:pos:R:3:forces:R:3 energy=-1003.9565746583925 stress="0.0019152767853060563 7.98797125223523e-05 -0.00035073620900619054 7.98797125223523e-05 0.0019097678396148596 -0.0003002375401702207 -0.00035073620900619054 -0.0003002375401702207 -0.0012578759328232489" free_energy=-1003.9565746583925 pbc="T T T"
C        0.00000000       0.00000000       1.00000010       0.00098730      -0.00423229      -0.02071564
C        0.25976011       0.22495884       4.53399997       0.01165764       0.00495812       0.02025926
C        1.23386001       0.71236932       1.00000010      -0.01171857      -0.00495889      -0.02026055
C        1.49362011       0.93732816       4.53399997      -0.00092637       0.00423306       0.02071666
4
Lattice="2.4677200133731945 -0.0 0.0 1.2338600066865972 2.137107224581521 0.0 0.0 0.0 19.99999960322502" Properties=species:S:1:pos:R:3:forces:R:3 energy=-1003.9584497948548 stress="0.001860187328394089 8.17160277527512e-05 -0.0003791990950773736 8.17160277527512e-05 0.0018785504806980782 -0.0003865443559989692 -0.0003791990950773736 -0.0003865443559989692 -0.0010402725780209788" free_energy=-1003.9584497948548 pbc="T T T"
C        0.00000000       0.00000000       1.00000010       0.00193707      -0.00666558      -0.01759354
C        0.32469988       0.33743826       4.53399997       0.01337411       0.00507896       0.01686618
C        1.23386001       0.71236932       1.00000010      -0.01346821      -0.00506019      -0.01686567
C        1.55855989       1.04980758       4.53399997      -0.00184297       0.00664682       0.01759277
4
Lattice="2.4677200133731945 -0.0 0.0 1.2338600066865972 2.137107224581521 0.0 0.0 0.0 19.99999960322502" Properties=species:S:1:pos:R:3:forces:R:3 energy=-1003.960566160235 stress="0.0018096886595581193 7.161629398555724e-05 -0.0003791990950773736 7.161629398555724e-05 0.0018335607575533052 -0.0004260251334525456 -0.0003791990950773736 -0.0004260251334525456 -0.0007960426523779246" free_energy=-1003.960566160235 pbc="T T T"
C        0.00000000       0.00000000       1.00000010       0.00269657      -0.00801156      -0.01413978
C        0.38963991       0.44991743       4.53399997       0.01401148       0.00479305       0.01306480
C        1.23386001       0.71236932       1.00000010      -0.01410867      -0.00474343      -0.01306455
C        1.62349992       1.16228700       4.53399997      -0.00259939       0.00796194       0.01413927
4
Lattice="2.4677200133731945 -0.0 0.0 1.2338600066865972 2.137107224581521 0.0 0.0 0.0 19.99999960322502" Properties=species:S:1:pos:R:3:forces:R:3 energy=-1003.9627051110637 stress="0.0017637807787981468 5.50894569119671e-05 -0.0003498180513909911 5.50894569119671e-05 0.001784898403947734 -0.0004150072420701522 -0.0003498180513909911 -0.0004150072420701522 -0.000550894569119671" free_energy=-1003.9627051110637 pbc="T T T"
C        0.00000000       0.00000000       1.00000010       0.00344939      -0.00840005      -0.01063897
C        0.45457994       0.56239685       4.53399997       0.01379860       0.00385434       0.00930148
C        1.23386001       0.71236932       1.00000010      -0.01388061      -0.00379109      -0.00930225
C        1.68843994       1.27476641       4.53399997      -0.00336712       0.00833654       0.01063974
4
Lattice="2.4677200133731945 -0.0 0.0 1.2338600066865972 2.137107224581521 0.0 0.0 0.0 19.99999960322502" Properties=species:S:1:pos:R:3:forces:R:3 energy=-1003.9646416091965 stress="0.0017252181589597698 3.764446222317752e-05 -0.00029564675209422343 3.764446222317752e-05 0.001739908680802961 -0.0003544088394669884 -0.00029564675209422343 -0.0003544088394669884 -0.0003287004262414037" free_energy=-1003.9646416091965 pbc="T T T"
C        0.00000000       0.00000000       1.00000010       0.00427703      -0.00802956      -0.00748397
C        0.51951996       0.67487626       4.53399997       0.01299410       0.00228365       0.00581172
C        1.23386001       0.71236932       1.00000010      -0.01304372      -0.00222452      -0.00580838
C        1.75337997       1.38724559       4.53399997      -0.00422741       0.00797042       0.00748062
4
Lattice="2.4677200133731945 -0.0 0.0 1.2338600066865972 2.137107224581521 0.0 0.0 0.0 19.99999960322502" Properties=species:S:1:pos:R:3:forces:R:3 energy=-1003.9661842225479 stress="0.0016949189576581877 2.2035782764786838e-05 -0.00022127598526306785 2.2035782764786838e-05 0.0017031823761949829 -0.00025341150179504865 -0.00022127598526306785 -0.00025341150179504865 -0.00015057784889271008" free_energy=-1003.9661842225479 pbc="T T T"
C        0.00000000       0.00000000       1.00000010       0.00518643      -0.00708776      -0.00495992
C        0.58445999       0.78735568       4.53399997       0.01176331       0.00017561       0.00303982
C        1.23386001       0.71236932       1.00000010      -0.01178054      -0.00013164      -0.00303853
C        1.81832000       1.49972500       4.53399997      -0.00516920       0.00704405       0.00495863
4
Lattice="2.4677200133731945 -0.0 0.0 1.2338600066865972 2.137107224581521 0.0 0.0 0.0 19.99999960322502" Properties=species:S:1:pos:R:3:forces:R:3 energy=-1003.9671724039528 stress="0.0016756376477389994 1.1936048997592873e-05 -0.00013588732704951885 1.1936048997592873e-05 0.0016802284358149967 -0.00012211496282152709 -0.00013588732704951885 -0.00012211496282152709 -3.764446222317752e-05" free_energy=-1003.9671724039528 pbc="T T T"
C        0.00000000       0.00000000       1.00000010       0.00617502      -0.00571453      -0.00332341
C        0.64940002       0.89983510       4.53399997       0.01025587      -0.00232633       0.00126575
C        1.23386001       0.71236932       1.00000010      -0.01025073       0.00234793      -0.00128041
C        1.88326002       1.61220442       4.53399997      -0.00618016       0.00569294       0.00333806
4
Lattice="2.4677200133731945 -0.0 0.0 1.2338600066865972 2.137107224581521 0.0 0.0 0.0 19.99999960322502" Properties=species:S:1:pos:R:3:forces:R:3 energy=-1003.9675121380803 stress="0.001666456071587005 6.427103306396162e-06 -4.6826038375172033e-05 6.427103306396162e-06 0.0016747194901238001 2.66265708407841e-05 -4.6826038375172033e-05 2.66265708407841e-05 0.0" free_energy=-1003.9675121380803 pbc="T T T"
C        0.00000000       0.00000000       1.00000010       0.00715178      -0.00412919      -0.00280096
C        0.71434004       1.01231452       4.53399997       0.00868184      -0.00501237       0.00068211
C        1.23386001       0.71236932       1.00000010      -0.00867285       0.00500722      -0.00067209
C        1.94820005       1.72468384       4.53399997      -0.00716078       0.00413433       0.00279093
4
Lattice="2.4677200133731945 -0.0 0.0 1.2338600066865972 2.137107224581521 0.0 0.0 0.0 19.99999960322502" Properties=species:S:1:pos:R:3:forces:R:3 energy=-1003.9671724039528 stress="0.0016692105444326031 8.263418536795066e-06 3.764446222317752e-05 8.263418536795066e-06 0.0016866555391213927 0.00017904073496389307 3.764446222317752e-05 0.00017904073496389307 -3.672630460797807e-05" free_energy=-1003.9671724039528 pbc="T T T"
C        0.00000000       0.00000000       1.00000010       0.00803753      -0.00249371      -0.00332752
C        0.77928007       1.12479369       4.53399997       0.00714612      -0.00772334       0.00126935
C        1.23386001       0.71236932       1.00000010      -0.00715949       0.00770740      -0.00128349
C        2.01314008       1.83716326       4.53399997      -0.00802390       0.00250965       0.00334192
4
Lattice="2.4677200133731945 -0.0 0.0 1.2338600066865972 2.137107224581521 0.0 0.0 0.0 19.99999960322502" Properties=species:S:1:pos:R:3:forces:R:3 energy=-1003.9661842225479 stress="0.0016820647510453956 1.4690521843191228e-05 0.00010926075620873476 1.4690521843191228e-05 0.0017169547404229748 0.00031860069247420975 0.00010926075620873476 0.00031860069247420975 -0.00015057784889271008" free_energy=-1003.9661842225479 pbc="T T T"
C        0.00000000       0.00000000       1.00000010       0.00872967      -0.00095234      -0.00496146
C        0.84422010       1.23727311       4.53399997       0.00573176      -0.01028158       0.00304110
C        1.23386001       0.71236932       1.00000010      -0.00577495       0.01027181      -0.00303956
C        2.07808010       1.94964268       4.53399997      -0.00868621       0.00096185       0.00495992
4
Lattice="2.4677200133731945 -0.0 0.0 1.2338600066865972 2.137107224581521 0.0 0.0 0.0 19.99999960322502" Properties=species:S:1:pos:R:3:forces:R:3 energy=-1003.9646416091965 stress="0.0017031823761949829 2.4790255610385195e-05 0.0001597594250447046 2.4790255610385195e-05 0.0017610263059525482 0.0004333703943741412 0.0001597594250447046 0.0004333703943741412 -0.0003277822686262043" free_energy=-1003.9646416091965 pbc="T T T"
C        0.00000000       0.00000000       1.00000010       0.00909091       0.00030750      -0.00748500
C        0.90916012       1.34975253       4.53399997       0.00452103      -0.01240249       0.00581249
C        1.23386001       0.71236932       1.00000010      -0.00459379       0.01241149      -0.00580889
C        2.14301988       2.06212185       4.53399997      -0.00901814      -0.00031650       0.00748114
4
Lattice="2.4677200133731945 -0.0 0.0 1.2338600066865972 2.137107224581521 0.0 0.0 0.0 19.99999960322502" Properties=species:S:1:pos:R:3:forces:R:3 energy=-1003.9627051110637 stress="0.0017325634198813655 3.672630460797807e-05 0.00018454968065508977 3.672630460797807e-05 0.0018170339204797148 0.0005104956340508951 0.00018454968065508977 0.0005104956340508951 -0.0005499764115044715" free_energy=-1003.9627051110637 pbc="T T T"
C        0.00000000       0.00000000       1.00000010       0.00899732       0.00120893      -0.01061840
C        0.97409990       1.46223195       4.53399997       0.00356432      -0.01388473       0.00928091
C        1.23386001       0.71236932       1.00000010      -0.00365534       0.01392047      -0.00928168
C        2.20795991       2.17460127       4.53399997      -0.00890630      -0.00124467       0.01061917
4
Lattice="2.4677200133731945 -0.0 0.0 1.2338600066865972 2.137107224581521 0.0 0.0 0.0 19.99999960322502" Properties=species:S:1:pos:R:3:forces:R:3 energy=-1003.960566160235 stress="0.0017656170940285457 4.5907880759972583e-05 0.00017995889257909253 4.5907880759972583e-05 0.0018776323230828785 0.0005417129929676765 0.00017995889257909253 0.0005417129929676765 -0.0007960426523779246" free_energy=-1003.960566160235 pbc="T T T"
C        0.00000000       0.00000000       1.00000010       0.00828101       0.00166865      -0.01411356
C        1.03903993       1.57471137       4.53399997       0.00285547      -0.01453342       0.01303832
C        1.23386001       0.71236932       1.00000010      -0.00294186       0.01459255      -0.01303806
C        2.27289993       2.28708069       4.53399997      -0.00819462      -0.00172752       0.01411304
4
Lattice="2.4677200133731945 -0.0 0.0 1.2338600066865972 2.137107224581521 0.0 0.0 0.0 19.99999960322502" Properties=species:S:1:pos:R:3:forces:R:3 energy=-1003.9584497948548 stress="0.001803261556251723 4.866235360557094e-05 0.00014506890320151335 4.866235360557094e-05 0.0019354762528404443 0.000522431683048488 0.00014506890320151335 0.000522431683048488 -0.0010393544204057793" free_energy=-1003.9584497948548 pbc="T T T"