4
Lattice="2.4677200133731945 0.0 0.0 -1.2338600066865972 2.137107224581521 0.0 0.0 0.0 19.99999960322502" Properties=species:S:1:pos:R:3:forces:R:3 energy=-1003.9586668056412 stress="0.001723381843729371 9.181576151994517e-07 0.0 9.181576151994517e-07 0.0017243000013445703 -0.0 0.0 -0.0 0.0002506570289494503" free_energy=-1003.9586668056412 pbc="T T T"
C        0.00000000       0.00000000       1.00000000       0.00069703      -0.00040238      -0.00082250
C        0.00000000      -1.42473881       4.72578232      -0.00004319       0.00002494       0.00082275
C        1.23387234       0.71236228       1.00000000      -0.00061861       0.00035713      -0.00082250
C        0.00000000       0.00000712       4.72578233      -0.00003522       0.00002031       0.00082250
