4
Lattice="2.4677200133731945 0.0 0.0 -1.2338600066865972 2.137107224581521 0.0 0.0 0.0 19.99999960322502" Properties=species:S:1:pos:R:3:forces:R:3 energy=-1003.9691284942821 stress="0.0016453384464374175 9.181576151994517e-07 -0.0 9.181576151994517e-07 0.0016462566040526168 0.0 -0.0 0.0 0.00022494861572386565" free_energy=-1003.9691284942821 pbc="T T T"
C        0.00000000       0.00000000       1.00000000       0.00070037      -0.00040443       0.00411119
C        0.00000000       0.00000000       4.53484825      -0.00003677       0.00002108       0.00049545
C        1.23387234       0.71236228       1.00000000      -0.00062221       0.00035918      -0.00395076
C        0.00000000       1.42474593       4.53511996      -0.00004139       0.00002391      -0.00065589
