4
Lattice="2.4677200133731945 0.0 0.0 -1.2338600066865972 2.137107224581521 0.0 0.0 0.0 19.99999960322502" Properties=species:S:1:pos:R:3:forces:R:3 energy=-1003.967018795691 stress="0.0017151184251925759 9.181576151994517e-07 -0.0 9.181576151994517e-07 0.001709609479501379 -0.0 -0.0 -0.0 -0.00026259307794704317" free_energy=-1003.967018795691 pbc="T T T"
C        0.00000000       0.00000000       1.00000000       0.00066026       0.00988692      -0.00873687
C        0.00000000       0.71236940       4.50050915       0.00000334      -0.00989798       0.00017046
C        1.23387234       0.71236228       1.00000000      -0.00066077      -0.00989258      -0.00872350
C        0.00000000       2.13711533       4.50000000      -0.00000283       0.00990338       0.01728990
